## Variables
CC = gcc
SRC = main.c school.c
OBJ = $(SRC:.c=.o)
RM = rm -f
CFLAGS = -Wall -Werror -Wextra -pedantic
NAME = school

# Build Executable
all: ${NAME}

## Rule
${NAME}: ${OBJ}
	${CC} ${OBJ} -o ${NAME}

%.O: %.C
	${CC} ${CFLAGS} -c $< -o $@

# Remove all Emacs and Vim temporary files along with the executable
clean:
	${RM} *~ ${NAME}

# Remove all object files
oclean:
	${RM} $(OBJ)

# Remove all Emacs and Vim temporary files, the executable, 
# and the object files
fclean: clean oclean

# Forces recompilation of all source files
re: oclean all

# Phony targets to ensure cleaning rules are always executed
.PHONY: all clean oclean fclean re
